# 
254 atoms 
2 atom types 
0.0 13.5273049541 xlo xhi 
0.0 14.9629428031 ylo yhi 
0.0 14.9629428031 zlo zhi 

Atoms # atomic

1 1 1.6785572487032339 1.8743456058231336 14.962939151171355 
2 1 1.677927851344691 0.0007007809195289945 1.873742088514204 
3 1 13.522269175251768 1.88072529611353 1.8800392145745133 
4 1 13.52261614842118 0.002539818436135907 14.96293915169949 
5 1 1.6863149355858533 1.876588242801254 3.7486088538525864 
6 1 1.680660052144746 14.963368361506225 5.616108203727051 
7 1 0.0017505069583214467 1.8959302844280939 5.624834391223075 
8 1 13.522458610312322 0.0066461681094477105 3.750264987984119 
9 1 1.7130726771226392 1.8957310394994917 7.481467751916417 
10 1 1.680660020038346 14.963368382936961 9.346827255928785 
11 1 0.0017505308804865796 1.8959302654745844 9.338101067951207 
12 1 -0.0033562138857430785 0.01821721216270129 7.481467752186712 
13 1 1.6863149338810506 1.8765882415695072 11.214326604085567 
14 1 1.6779278747296023 0.0007007600840394013 13.08919337042461 
15 1 13.522269152460563 1.8807253156421972 13.08289624686598 
16 1 13.522458615644538 0.006646167760397224 11.21267046963216 
17 1 1.6798113526800613 5.610586434820948 14.962939129949687 
18 1 1.685179335583127 3.744841031629514 1.8776334880089272 
19 1 0.001957509359953675 5.612812566297967 1.896604104413668 
20 1 13.521520233595236 3.7491444411065484 14.962939130873565 
21 1 1.7279736651923954 5.615205458108775 3.7723971246183017 
22 1 1.727941497981125 3.760962069868966 5.627591405095222 
23 1 0.005751532061156277 5.609760599165388 5.618336283238577 
24 1 0.004161284491566211 3.756997224032145 3.7655406441140675 
25 1 1.7017401174448235 5.609944625095182 7.481467729489913 
26 1 1.7279415272488536 3.760962049538401 9.335344057623967 
27 1 0.005751504963792369 5.609760621083563 9.344599176626566 
28 1 0.005331133101591353 3.7497626638475245 7.481467729016895 
29 1 1.7279736698624528 5.615205453893593 11.190538367743038 
30 1 1.6851793096520673 3.7448410516433603 13.085301974647244 
31 1 0.0019575291680894854 5.612812547492676 13.066331362245254 
32 1 0.004161283212738771 3.7569972250021175 11.197394850595463 
33 1 1.6836637725743393 9.342520784335559 14.962939150388813 
34 1 1.6989457322626274 7.4757973342929915 1.8887658339748905 
35 1 0.0006010371661900516 9.335210938108695 1.8836961739967855 
36 1 0.0030034603035687777 7.472335497404715 14.962939145368008 
37 1 1.7022949272494898 9.336267760388566 3.7563041083735054 
38 1 1.7181323545889713 7.464055499525627 5.625589567854618 
39 1 0.0047241643817023185 9.33030807167391 5.619027852354649 
40 1 0.0037249916866242795 7.466789151325506 3.7591820827432914 
41 1 1.710835431352478 9.327863171548117 7.481467749253851 
42 1 1.7181323283334362 7.464055516696126 9.337345891861442 
43 1 0.004724188613377271 9.33030805188502 9.343907609754709 
44 1 0.003919930189489418 7.473436958771041 7.481467750996882 
45 1 1.702294920694535 9.336267763128333 11.206631349511126 
46 1 1.6989457502450995 7.475797314115144 13.074169634944036 
47 1 0.0006010153242863309 9.335210956017358 13.07923928808576 
48 1 0.0037249897645438225 7.466789153623301 11.203753374462822 
49 1 1.6778692831558637 13.088023902636385 14.96293912962352 
50 1 1.6816531906965688 11.21233874833769 1.8762550057370224 
51 1 13.523661564319196 13.086783919862627 1.8757148146553067 
52 1 13.525218434687487 11.210251274163037 14.962939130740791 
53 1 1.6792017913216128 13.086115837289691 3.7465277946717976 
54 1 1.69636909759113 11.205774754014717 5.6185982193126955 
55 1 13.522980152924257 13.084630301397452 5.619187180627931 
56 1 13.526172201146883 11.204138456272629 3.7532815413384384 
57 1 1.6875444928018781 13.082181177204763 7.481467730708359 
58 1 1.6963691182614493 11.205774736931211 9.344337240724888 
59 1 13.52298013266456 13.084630319011618 9.34374827874419 
60 1 0.0031310006983114556 11.201988114572242 7.481467730772319 
61 1 1.6792017831847972 13.086115836385217 11.216407706693895 
62 1 1.6816531608970358 11.212338771002209 13.086680454433138 
63 1 13.523661595595618 13.086783898248257 13.087220644743281 
64 1 13.526172206573289 11.204138456135109 11.20965395741609 
65 1 5.067237169395933 1.8616182071465117 14.962939129749092 
66 1 5.06556281455569 14.9563714038782 1.8660478357518864 
67 1 3.37110930088364 1.8663833291096408 1.8685002249224945 
68 1 3.366802294501045 14.960186110885452 14.962939130852565 
69 1 5.069061820348492 1.851633306743774 3.730325159716975 
70 1 5.070941236560072 14.956166446187465 5.607759201615054 
71 1 3.37921530898103 1.85688347443595 5.612605218791268 
72 1 3.369403728048715 14.957419804779944 3.7399930450440935 
73 1 5.080754255386286 1.8538730336842528 7.481467728785394 
74 1 5.070941265769422 14.956166420623632 9.355176258068488 
75 1 3.379215284582332 1.8568835022668821 9.350330241747264 
76 1 3.3758577127148772 14.958283255436383 7.481467728211654 
77 1 5.069061813117981 1.8516332995478761 11.232610344577745 
78 1 5.065562786361437 14.956371427510673 13.096887621678299 
79 1 3.3711093296943653 1.8663833069551874 13.094435233653568 
80 1 3.369403732240139 14.957419809080118 11.222942458154519 
81 1 5.070823763279115 5.60627034485737 14.962939152442605 
82 1 5.068351400439712 3.7296808982305083 1.8599146610276185 
83 1 3.3726934151140733 5.608160746912737 1.8594833696351785 
84 1 3.3728701817943927 3.7370057892530917 14.962939150567204 
85 1 5.061113332003323 5.60213954485614 3.705419439836495 
86 1 5.073760868274573 3.6929446160913937 5.5795530404734555 
87 1 3.4759235024228534 5.620379597916195 5.65845372471792 
88 1 3.3839913452534187 3.7335404514399118 3.737542521920133 
89 1 5.0737608260112195 3.6929446388269374 9.383382416776248 
90 1 3.4759235182443824 5.6203795735943 9.304481747967312 
91 1 3.45255876703807 3.7791555925331597 7.4814677557985725 
92 1 5.061113331863596 5.602139549577379 11.257516010369105 
93 1 5.06835142457851 3.7296808767889957 13.103020804214296 
94 1 3.3726933884106107 5.608160766198761 13.103452094367801 
95 1 3.3839913445950063 3.7335404532362024 11.225392930851557 
96 1 5.066029307519386 9.355918917623407 14.962939128206802 
97 1 5.061846233660857 7.483256451874401 1.8528013212414394 
98 1 3.376780076455106 9.350528516779216 1.8719339263554047 
99 1 3.3709589092217978 7.480013504541539 14.962939129870279 
100 1 5.070953773573844 9.363017662235338 3.7329164011864817 
101 1 5.147594188877782 7.507164088531498 5.651709855133723 
102 1 3.4102005807842746 9.339613573566094 5.626423468192295 
103 1 3.4164348448161275 7.482070216333884 3.769723103231219 
104 1 5.13486653968496 9.336800757965738 7.481467727274062 
105 1 5.147594205056822 7.507164068359299 9.31122562107946 
106 1 3.4102005620309574 9.339613591174004 9.33651199378082 
107 1 3.427090043539315 7.453419236773429 7.481467727693569 
108 1 5.070953759209764 9.363017657073259 11.23001910192854 
109 1 5.0618462024150155 7.483256475621534 13.110134140156012 
110 1 3.376780109315379 9.350528495668508 13.091001534436332 
111 1 3.4164348587589957 7.4820702164640345 11.19321238906877 
112 1 5.064359972914508 13.091650291976954 14.96293915240462 
113 1 5.065870527326643 11.226652147615392 1.8658723037623914 
114 1 3.3672381472846897 13.089610567797754 1.8704946227839054 
115 1 3.3686340664898746 11.219589165694986 14.962939151429163 
116 1 5.0664040647778625 13.09417821309142 3.7362724101260825 
117 1 5.069400416935148 11.235340557211336 5.6097210137737745 
118 1 3.3729906602695716 13.091177100913972 5.611573305127493 
119 1 3.376495739414828 11.22042979795528 3.742619115571067 
120 1 5.068226476862962 13.094645583388004 7.481467754173315 
121 1 5.069400378270278 11.235340587578238 9.353214443210334 
122 1 3.3729906932923477 13.091177075057177 9.351362151510418 
123 1 3.3969625403965233 11.204264595181241 7.481467753770216 
124 1 5.066404064136747 13.09417821256275 11.226663046542301 
125 1 5.065870551085968 11.226652125587318 13.097063156659866 
126 1 3.367238122679529 13.089610588482762 13.092440838537946 
127 1 3.3764957444068973 11.220429796958891 11.220316342169383 
128 1 8.466201694754362 1.8665187150048017 14.96293915150192 
129 1 8.467548331833894 -0.002507463801208335 1.8698649750515628 
130 1 6.767336726816451 1.8591357066073013 1.8638091201083362 
131 1 6.768393328099749 14.95754050844352 14.962939152393462 
132 1 8.455366288430044 1.8670085216552006 3.74115003295446 
133 1 8.460936216912744 -0.0027991956716397243 5.610486947947211 
134 1 6.766063097431552 1.857507865202945 5.609014827658778 
135 1 6.767627531067161 14.956237289099432 3.7355944183631844 
136 1 8.428053810634795 1.889330568125056 7.481467754082173 
137 1 8.460936183452434 -0.0027991687284718873 9.352448508741109 
138 1 6.766063136224097 1.857507835969063 9.353920629252753 
139 1 6.767774942214573 14.952402336175858 7.481467754281379 
140 1 8.45536628222438 1.8670085227332935 11.221785424913769 
141 1 8.467548356452177 -0.0025074844922407355 13.093070486240528 
142 1 6.767336702918707 1.8591357292458301 13.099126339658973 
143 1 6.767627531586931 14.956237289942885 11.227341038079292 
144 1 8.458727054856869 5.608058969548947 14.962939129392222 
145 1 8.458056037824697 3.7357251332034274 1.8680806165480397 
146 1 6.764694704295107 5.605586944644485 1.85990229938782 
147 1 6.766379139637985 3.7322893781970516 14.96293912799175 
148 1 8.429239643844307 5.614400670597619 3.746415305209533 
149 1 8.406083629400763 3.761825213778047 5.623463643902989 
150 1 6.690762914342799 5.591327097893697 5.584259893599245 
151 1 6.756178602835749 3.726774078512024 3.722118542953607 
152 1 8.283994318642197 5.779827259438577 7.481467726861741 
153 1 8.406083653625402 3.76182519627757 9.339471814429299 
154 1 6.6907628950988265 5.591327117185563 9.378675586371287 
155 1 6.701207898520781 3.796199952797812 7.481467727615061 
156 1 8.429239632975479 5.614400669832252 11.216520189029463 
157 1 8.458056004267089 3.735725154389683 13.094854843535636 
158 1 6.764694734593756 5.605586921245707 13.10303316125208 
159 1 6.756178616365295 3.726774082945073 11.240816961182237 
160 1 8.460703206639458 9.351372278455406 14.962939150273268 
161 1 8.454299498313782 7.481294348519358 1.8677511918799319 
162 1 6.760992359810465 9.358637495198877 1.8606031806166718 
163 1 6.765237133885042 7.48179464526956 14.962939152299853 
164 1 8.452374334849555 9.358128237035912 3.725443306682703 
165 1 8.374581244764544 7.499899768762461 5.599348228469787 
166 1 6.761562586734489 9.400709102100388 5.575164991133154 
167 1 6.7385423327906775 7.485566496780521 3.7072951340656304 
168 1 8.375719991210335 9.291727178045065 7.481467753280676 
169 1 8.374581222436717 7.499899801746094 9.3635872456004 
170 1 6.761562632815083 9.400709074245048 9.387770468292903 
171 1 8.452374334777293 9.358128233201036 11.237492143847517 
172 1 8.454299523885332 7.481294329331055 13.095184271173297 
173 1 6.760992334717028 9.35863751699029 13.102332284855539 
174 1 6.738542338729627 7.48556649255016 11.255640316806664 
175 1 8.468019390657622 13.091688269468749 14.962939130929717 
176 1 8.464252531980689 11.224289448022095 1.8649504977655746 
177 1 6.767380389810308 13.093828970154958 1.8658377148037963 
178 1 6.765447754405331 11.22619210549261 14.962939129895638 
179 1 8.466093072404997 13.093437412733076 3.738248596293837 
180 1 8.459321333242393 11.2274841264676 5.6093711121772625 
181 1 6.7673243825321485 13.094053723506834 5.607059694099026 
182 1 6.764613141297316 11.236477247354854 3.7290669942475194 
183 1 8.465962459419277 13.096390319565753 7.481467728257557 
184 1 8.459321358448308 11.227484100132724 9.353564349493965 
185 1 6.767324353859452 13.094053748866104 9.355875765413819 
186 1 6.771368183652655 11.242352285327012 7.48146772933868 
187 1 8.46609306840757 13.093437408886777 11.224686906746768 
188 1 8.464252503583026 11.224289470061102 13.097984961092514 
189 1 6.767380418112347 13.09382894682395 13.09709774288966 
190 1 6.764613147822319 11.236477254781445 11.233868509927433 
191 1 11.84082795719059 1.8783226049825954 14.962939130810126 
192 1 11.842368962658787 0.0039644275547544615 1.8761850316906055 
193 1 10.154169636329433 1.8751758636450429 1.8768880417846845 
194 1 10.159498019787675 0.0006676202866225104 14.962939129692874 
195 1 11.833577920786876 1.888740647316023 3.7584827331772805 
196 1 11.836673521945434 0.015144698877983531 5.619916947382826 
197 1 10.124345006624122 1.8914872237905367 5.62166467937062 
198 1 10.156135630306137 0.004252025182381054 3.7463348894168615 
199 1 11.810745971730938 1.9079028444671486 7.481467729957385 
200 1 11.836673541504076 0.015144682651309301 9.343018511580789 
201 1 10.124344987737283 1.891487236049152 9.34127078192732 
202 1 10.145202946470791 0.011689558694730885 7.481467730557119 
203 1 11.83357791446938 1.888740648594129 11.204452763879772 
204 1 11.842368931462348 0.003964449261003015 13.086750427732277 
205 1 10.154169666044677 1.8751758409322257 13.08604741819527 
206 1 10.15613563834765 0.004252026918260827 11.216600611421304 
207 1 11.839273804254178 5.611762939841514 14.962939145579083 
208 1 11.834320975952243 3.751148023015666 1.8885121724112721 
209 1 10.13957311375508 5.609073057882854 1.8792912593354496 
210 1 10.153752712321621 3.7430797235213307 14.962939150613572 
211 1 11.81106587622548 5.609978558248123 3.773467140923391 
212 1 11.806887254224465 3.7667880666190547 5.632361467075546 
213 1 10.075564867105241 5.639431055356033 5.655070390693 
214 1 10.122275955388085 3.751355455218703 3.7627523791389295 
215 1 11.829616288227118 5.617553765138575 7.4814677509656065 
216 1 11.806887235079701 3.7667880827428006 9.330573996838261 
217 1 10.075564892167737 5.639431033739586 9.307865067566247 
218 1 10.067579274535868 3.806864971548504 7.4814677513910866 
219 1 11.811065879301237 5.609978556371742 11.18946831886774 
220 1 11.834320997505083 3.7511480047364074 13.074423289300539 
221 1 10.139573095794258 5.609073078373994 13.083644209413148 
222 1 10.12227596219152 3.7513554516493315 11.200183080618183 
223 1 11.84432161975993 9.338288744840137 14.962939130876224 
224 1 11.835229135103921 7.469810072035228 1.8829888130222294 
225 1 10.152801239299112 9.344725187122496 1.8697332162490812 
226 1 10.149522867142304 7.4758581005689 14.96293912953385 
227 1 11.830269050477071 9.335044253946688 3.7552820859883598 
228 1 11.821989210133623 7.469605530057644 5.620723407094279 
229 1 10.120200928170627 9.339334560920292 5.6223362272817 
230 1 10.12615002620214 7.47726174319865 3.752279075057815 
231 1 11.832166360224482 9.33680559627026 7.4814677289789335 
232 1 11.821989234878881 7.469605508203684 9.34221205279696 
233 1 10.120200899254122 9.339334579743925 9.340599236926908 
234 1 10.120849930555902 7.490127871730642 7.481467729492844 
235 1 11.830269050832896 9.335044253117525 11.20765341163751 
236 1 11.83522911375332 7.469810090070149 13.079946653540807 
237 1 10.15280126463937 9.344725167134179 13.093202246355704 
238 1 10.126150022744424 7.477261747390981 11.210656417860042 
239 1 11.84407453844758 13.087740833073145 14.962939151794332 
240 1 11.843275162428517 11.21020812015221 1.8765719493867639 
241 1 10.159761483011527 13.08997835016077 1.8721091142932509 
242 1 10.159183878254266 11.215841591487901 14.962939151580304 
243 1 11.842769359931857 13.088002466783008 3.74810735966742 
244 1 11.832189181604237 11.205639193384277 5.62061800071567 
245 1 10.154746603340923 13.091113386138069 5.613521734950471 
246 1 10.152162258513332 11.217447261148482 3.7431387883786718 
247 1 11.833171398315754 13.083302881867464 7.481467751785348 
248 1 11.832189155750742 11.205639214876822 9.34231745868993 
249 1 10.154746635893225 13.091113364675211 9.349413724493104 
250 1 10.122652287447426 11.192079987178778 7.4814677519760595 
251 1 11.84276935411379 13.08800246781973 11.214828098060506 
252 1 11.843275185171208 11.21020810075612 13.086363512291255 
253 1 10.159761459761818 13.089978371156004 13.090826344782814 
254 1 10.152162259595226 11.217447262191534 11.21979666985671 
