# 
254 atoms 
2 atom types 
0.0 13.5273049541 xlo xhi 
0.0 14.9629428031 ylo yhi 
0.0 14.9629428031 zlo zhi 

Atoms # atomic

1 1 1.684098132619715 1.8754395726463042 14.962939136738994 
2 1 1.6832228237990488 14.96537013127997 1.8760313142431027 
3 1 13.530412793375094 1.87837443716551 1.8803035865304554 
4 1 13.530234217622308 14.96442926021831 14.96293913654142 
5 1 1.6908442061507296 1.8841116935536826 3.75737229317803 
6 1 1.6881647308720393 0.009673647735581496 5.61999469056731 
7 1 13.525377580579619 1.8948250098537036 5.62455491844054 
8 1 13.529999130517911 0.005654173052349778 3.7507540381694287 
9 1 1.7122438338323342 1.9022839594623384 7.481467734938681 
10 1 1.6881647308250365 0.00967364772254928 9.342940778968021 
11 1 13.525377580885152 1.8948250099435835 9.338380551325212 
12 1 13.52822297609186 0.015611909203206695 7.481467734902925 
13 1 1.690844205787545 1.8841116935015845 11.205563176559307 
14 1 1.6832228234220956 14.965370131135348 13.08690415554063 
15 1 13.530412793363391 1.8783744370635809 13.082631883253665 
16 1 13.529999130750408 0.005654173024625913 11.21218143171818 
17 1 1.6775809890324926 5.608198945458498 14.962939136635349 
18 1 1.6880122470378078 3.7461344593335784 1.8867121901603912 
19 1 13.523038546587548 5.6089870955678185 1.9000039441767045 
20 1 13.530715485385084 3.745645172895521 14.962939136688924 
21 1 1.719002664711236 5.602514536030529 3.779813432480671 
22 1 1.722591581481159 3.7657896011090233 5.632666965305989 
23 1 13.523333898788117 5.6105344346728625 5.619815484336631 
24 1 13.521516624827832 3.754680565945377 3.766574000710779 
25 1 1.6987484555546497 5.616408536179383 7.481467734831559 
26 1 1.7225915811746602 3.7657896010383727 9.330268504384318 
27 1 13.523333898837619 5.610534434526673 9.343119985444538 
28 1 13.524303843724196 3.7495264158811934 7.48146773495608 
29 1 1.7190026644030054 5.602514536097647 11.183122037485731 
30 1 1.6880122469117633 3.746134459324462 13.07622327990703 
31 1 13.523038546890623 5.608987095638349 13.062931526033054 
32 1 13.521516625012296 3.7546805658228246 11.196361469128615 
33 1 1.6767352424768436 9.340386752021654 14.962939136658559 
34 1 1.6740844731245272 7.470102553222654 1.865035748695513 
35 1 13.521880387309727 9.337314197752296 1.8840880022563085 
36 1 13.51210641653623 7.472124247590957 14.962939136636303 
37 1 1.6891497437357732 9.342954852167807 3.7546963848634416 
38 1 1.729811027699533 7.459996181431475 5.63333677444872 
39 1 13.528286096182736 9.32446078637355 5.623527679138257 
40 1 13.532319129017091 7.464624937341306 3.7653726427106537 
41 1 1.713902835054859 9.310990797687491 7.481467734963589 
42 1 1.7298110276417846 7.459996181540897 9.32959869540099 
43 1 13.528286096534957 9.324460786514612 9.339407790541548 
44 1 13.522433483364322 7.470010510114621 7.481467734828711 
45 1 1.6891497435283633 9.342954852312067 11.208239084935622 
46 1 1.6740844727756394 7.47010255316659 13.097899721551373 
47 1 13.521880387439303 9.337314197763357 13.078847467818692 
48 1 13.532319129294232 7.464624937278222 11.197562827330763 
49 1 1.6816278501599786 13.087762999281955 14.962939136526519 
50 1 1.6806675985876407 11.212486819295167 1.8759537361692218 
51 1 13.528861006520302 13.086830362087271 1.8758778857848126 
52 1 13.527054403786048 11.210896371194664 14.962939136744513 
53 1 1.6816571278810906 13.088623341750866 3.748569481345761 
54 1 1.6901922669163427 11.20893469212194 5.624175970776362 
55 1 13.52701564519919 13.084200634127136 5.620374323913494 
56 1 13.523948761081131 11.20595963611657 3.754336458358064 
57 1 1.69391180532248 13.082504090075554 7.481467734900428 
58 1 1.69019226656274 11.208934692043384 9.338759498973305 
59 1 13.527015645222686 13.084200634137183 9.342561145597427 
60 1 13.52648415547564 11.193680516910138 7.481467734932886 
61 1 1.681657127634837 13.088623341768468 11.21436598851524 
62 1 1.6806675985901693 11.212486819385097 13.086981733571571 
63 1 13.528861006916202 13.086830362237219 13.087057583981622 
64 1 13.523948761431262 11.205959636147195 11.2085990113675 
65 1 5.060217219539844 1.8627612734044192 14.962939136378237 
66 1 5.0599486023727795 14.957007352786723 1.8691552144525554 
67 1 3.370823746077918 1.8706861647029827 1.8749469080585281 
68 1 3.366890674722335 14.961704674226231 14.962939136614821 
69 1 5.069344690091184 1.8594242548896358 3.737051524138271 
70 1 5.068247989548741 14.958333786738782 5.610490185050115 
71 1 3.3955584088735766 1.8790365724618878 5.621991228915727 
72 1 3.370352021133563 14.962500966463528 3.7456938218857596 
73 1 5.106898502917868 1.888438066127651 7.481467735064771 
74 1 5.068247989088064 14.958333786603283 9.352445284758746 
75 1 3.395558408677669 1.8790365723885412 9.340944240896958 
76 1 3.384122484760839 14.97261380650526 7.481467735080935 
77 1 5.069344689553441 1.859424254890166 11.225883945877019 
78 1 5.059948602290609 14.957007352839037 13.09378025498919 
79 1 3.3708237462506805 1.8706861648116184 13.087988561625856 
80 1 3.370352021259296 14.962500966434963 11.217241647790237 
81 1 5.069114709898419 5.607351734956358 14.962939136494798 
82 1 5.065300332580263 3.730355208400586 1.8607263704850487 
83 1 3.3722570479047818 5.6063612652681245 1.861942621788364 
84 1 3.3692154991298042 3.7386949921568404 14.962939136434892 
85 1 5.070665966810257 5.606947121032786 3.705924130364859 
86 1 5.108801832080378 3.729186513737927 5.602148939984557 
87 1 3.4865040850697153 5.62274340787738 5.671621127674258 
88 1 3.3961482272589785 3.7412762444409937 3.7550911903841047 
89 1 5.1088018316190436 3.729186513786312 9.360786530191813 
90 1 3.4865040850151785 5.62274340791281 9.291314342432004 
91 1 3.4566435221769596 3.790790738560863 7.481467735012359 
92 1 5.070665966036494 5.606947120992928 11.257011339490148 
93 1 5.065300331960547 3.73035520820418 13.102209099321664 
94 1 3.37225704756874 5.606361265175393 13.100992848209906 
95 1 3.396148227189611 3.7412762443575196 11.207844279552182 
96 1 5.067016115281454 9.352020241963169 14.96293913640878 
97 1 5.071868772855109 7.482843017702426 1.8649951717239341 
98 1 3.366364962901206 9.348350438973924 1.8613387530073917 
99 1 3.3767670907545555 7.476187377103038 14.962939136599417 
100 1 5.066938985795295 9.36394131341312 3.7095950992331406 
101 1 5.090537256770699 7.521134042502145 5.47352591687108 
102 1 3.403242666222882 9.34454173646965 5.6210316519582655 
103 1 3.368017795668315 7.4810060123086775 3.7177964567042325 
104 1 5.157677549174733 9.261209907264767 7.481467735071747 
105 1 5.090537256155107 7.521134042237421 9.489409553304062 
106 1 3.4032426657452373 9.344541736464686 9.341903817881542 
107 1 3.485674882200868 7.42914149261604 7.4814677349854 
108 1 5.0669389853879 9.363941313518032 11.253340370829678 
109 1 5.071868772620344 7.4828430177178875 13.097940298164382 
110 1 3.3663649627981065 9.348350439113954 13.101596716878452 
111 1 3.3680177953313915 7.481006012225518 11.24513901312384 
112 1 5.05996956195835 13.091401742146166 14.962939136520298 
113 1 5.063497926627869 11.226501783336253 1.8629513136808882 
114 1 3.366534319385293 13.089770546840091 1.8719621198564302 
115 1 3.3666265013751904 11.217658569187217 14.9629391364627 
116 1 5.062662749887353 13.090502971128124 3.738909301813681 
117 1 5.071328129479104 11.221590993786684 5.609150851511716 
118 1 3.374342913487388 13.088183446286669 5.6142869174957415 
119 1 3.3707769169530586 11.221567917936158 3.743572726174274 
120 1 5.06329360652124 13.093229954782682 7.48146773518787 
121 1 5.07132812953977 11.221590993857438 9.353784618311282 
122 1 3.374342913635108 13.088183446458407 9.348648552109324 
123 1 3.406948136577592 11.187587397534296 7.481467734932183 
124 1 5.062662749597111 13.090502971262866 11.22402616793849 
125 1 5.063497926220568 11.226501783275475 13.099984155961698 
126 1 3.3665343192748622 13.089770546766626 13.090973349781567 
127 1 3.370776916789691 11.221567917940783 11.219362743716568 
128 1 8.462087687100835 1.859430009801583 14.962939136451892 
129 1 8.46269301673691 14.953994275357159 1.866186760826892 
130 1 6.761107620676273 1.8546359229573848 1.8602764922295483 
131 1 6.760026413363367 14.95458753331924 14.962939136394185 
132 1 8.460445423619863 1.8477629372384172 3.7305922557126228 
133 1 8.454961276156213 14.955908625009 5.609224433661458 
134 1 6.761705645520343 1.8583808770827683 5.60843459035243 
135 1 6.760408132505214 14.954095156442593 3.7357857119028606 
136 1 8.428026182692994 1.8748009196729558 7.481467735350026 
137 1 8.454961276269396 14.955908625184923 9.353711036200577 
138 1 6.76170564603078 1.8583808772002965 9.354500879624204 
139 1 6.761361336191707 14.94915227817878 7.481467735088471 
140 1 8.460445423502609 1.847762937431762 11.232343214001169 
141 1 8.462693016558651 14.953994275259225 13.096748708645942 
142 1 6.761107620616417 1.854635922938939 13.102658977302147 
143 1 6.760408132602007 14.954095156380637 11.227149758024222 
144 1 8.458798725325726 5.605594052745831 14.962939136258203 
145 1 8.464420102249301 3.726915429705187 1.8543238754048497 
146 1 6.765923151960677 5.602650046427759 1.855819801108195 
147 1 6.761602033346197 3.7303690260186113 14.962939136405593 
148 1 8.470656654068108 5.593679129984681 3.700225004064089 
149 1 8.442198275608549 3.6987471241953394 5.584469749185623 
150 1 6.786892466171662 5.549163238730666 5.500983120390573 
151 1 6.770338935884242 3.71797290151002 3.7087883003289215 
152 1 6.09235883216755 6.704010187705739 7.481467735401149 
153 1 8.442198275492528 3.698747124062552 9.37846572101664 
154 1 6.786892466128005 5.549163238996786 9.461952349923235 
155 1 6.7810958532302275 3.88595958686847 7.481467735265482 
156 1 8.47065665412558 5.593679129993559 11.262710466063343 
157 1 8.464420102319139 3.726915429835305 13.108611594109586 
158 1 6.765923152204586 5.6026500465645475 13.107115668583171 
159 1 6.770338936071156 3.717972901416634 11.254147169605504 
160 1 8.46487967284476 9.355781715528105 14.962939136400115 
161 1 8.472695675315496 7.482540382926813 1.8465329784468052 
162 1 6.770101835596023 9.35892533621945 1.8580473137248892 
163 1 6.7621551457679 7.481239905797481 14.962939136285474 
164 1 8.45127351218021 9.35793540828275 3.740956058992609 
165 1 8.330993103251146 7.4637995043880165 5.696963533598348 
166 1 6.752305287251623 9.372007786484213 5.577315301470722 
167 1 6.7980294072291825 7.4784979536804475 3.693228307795713 
168 1 8.370608412916617 9.31475321378212 7.4814677352718375 
169 1 8.330993103441559 7.463799504192257 9.265971936798667 
170 1 6.752305287423396 9.372007786537019 9.385620168657953 
171 1 8.451273511933685 9.357935408230995 11.22197941082973 
172 1 8.472695675000901 7.482540382793345 13.116402491164262 
173 1 6.770101835484723 9.35892533611468 13.104888155793041 
174 1 6.79802940723364 7.47849795371572 11.269707162410327 
175 1 8.463568117969416 13.089745826015623 14.96293913639514 
176 1 8.462711719405302 11.224715002920627 1.8678450474328359 
177 1 6.761660323409617 13.092189104632219 1.8667833828399505 
178 1 6.763817847920564 11.22574759570768 14.962939136446414 
179 1 8.461569858158487 13.091833436484851 3.738123662890915 
180 1 8.450538071347124 11.223691152503964 5.612801887365021 
181 1 6.760920202313372 13.090933646417017 5.608149092556357 
182 1 6.764073727278907 11.232941033381445 3.731271635046753 
183 1 8.457575160534475 13.088592058101902 7.48146773509039 
184 1 8.45053807096656 11.223691152424147 9.350133582650418 
185 1 6.76092020222603 13.09093364624431 9.35478637729614 
186 1 6.751261651251585 11.229548244520126 7.481467735320732 
187 1 8.461569858069852 13.091833436540085 11.224811807026155 
188 1 8.46271171946932 11.22471500292404 13.095090422075781 
189 1 6.761660323592295 13.092189104725014 13.09615208663764 
190 1 6.764073727366302 11.23294103320861 11.231663834661495 
191 1 11.848126612309398 1.8725498830078422 14.962939136494299 
192 1 11.848136043689804 14.962596540543432 1.8742411011295177 
193 1 10.157285956795603 1.8640795590433707 1.8685514027494545 
194 1 10.160285064462817 14.95879417041773 14.962939136529867 
195 1 11.840526705558721 1.874477359690403 3.7500095308638577 
196 1 11.84487619571834 -0.0011008639574080707 5.617622854632873 
197 1 10.145953654017168 1.855677344413939 5.616418451070338 
198 1 10.15795578100533 14.95515237678691 3.7411949099160124 
199 1 11.816108976036015 1.8955762126190738 7.481467734941051 
200 1 11.844876195579094 -0.00110086410021007 9.345312614978456 
201 1 10.145953653995383 1.8556773443394814 9.346517018796483 
202 1 10.145114218964032 14.961707644707618 7.4814677351858 
203 1 11.840526705713486 1.8744773596918745 11.212925939072157 
204 1 11.848136043807353 14.96259654060512 13.088694368544717 
205 1 10.15728595720121 1.8640795591011774 13.094384066916595 
206 1 10.157955781301304 14.955152376640543 11.22174055985027 
207 1 11.852413219994434 5.60874621759459 14.962939136593965 
208 1 11.842668574141758 3.742200205733181 1.8786905005868417 
209 1 10.161269020651885 5.608001199170714 1.8543975889296869 
210 1 10.158772268313324 3.735459165763587 14.962939136402795 
211 1 11.79714775798494 5.616502893206344 3.7735249174916334 
212 1 11.799770553070921 3.7607979291256832 5.627811273958964 
213 1 10.049855144979166 5.618136694127813 5.657571207811028 
214 1 10.14402191635288 3.728447415046279 3.7389099316891667 
215 1 11.825030368960123 5.608197065043708 7.4814677349848075 
216 1 11.799770553480414 3.760797929188901 9.335124195953634 
217 1 10.049855145487282 5.618136694318143 9.305364262472521 
218 1 10.076160362259962 3.778948479402641 7.481467735076806 
219 1 11.797147758419325 5.616502893271411 11.189410552419243 
220 1 11.842668574235454 3.742200205594994 13.084244969304628 
221 1 10.161269020896354 5.608001199171421 13.108537880939622 
222 1 10.144021916702675 3.728447415046215 11.224025538316644 
223 1 11.841645773367068 9.342752125057471 14.962939136456827 
224 1 11.827778330407218 7.47607657281337 1.8966603370659811 
225 1 10.150402482623829 9.349692021556143 1.8764261468836372 
226 1 10.163007437298537 7.480096049023465 14.962939136462294 
227 1 11.824171761619231 9.33286568696876 3.761849909690315 
228 1 11.810802763405688 7.461807001201525 5.6266376087440415 
229 1 10.10160431694772 9.320400468575162 5.632591248161787 
230 1 10.098771045799191 7.481905940940918 3.783672220967963 
231 1 11.813479459265595 9.324439170912909 7.4814677349954515 
232 1 11.810802763349884 7.461807001174698 9.33629786128858 
233 1 10.101604317313358 9.320400468441683 9.330344221954318 
234 1 10.09645342442615 7.4466409888632645 7.481467735242482 
235 1 11.824171761726316 9.332865687048193 11.201085560303305 
236 1 11.827778330727972 7.476076572890126 13.066275132934448 
237 1 10.150402483208296 9.34969202174159 13.086509322849697 
238 1 10.098771046619197 7.481905940960114 11.179263248872829 
239 1 11.848076270266676 13.087421215034022 14.962939136621774 
240 1 11.843712640072077 11.211834918566964 1.8770979158255199 
241 1 10.159550270925257 13.08799768815103 1.8712008244019023 
242 1 10.158540686504667 11.218421486207161 14.962939136383572 
243 1 11.845715002889063 13.084994033616956 3.7476347436974384 
244 1 11.8268025676124 11.19796419914822 5.621013896912014 
245 1 10.151307260913363 13.086805406513013 5.613207125188952 
246 1 10.148820519336983 11.215834671164039 3.7465612841430684 
247 1 11.835907513996702 13.078015722048914 7.481467735090468 
248 1 11.826802567802742 11.197964199218099 9.34192157287683 
249 1 10.15130726136827 13.086805406606942 9.349728344619125 
250 1 10.123361834815169 11.193667979289472 7.4814677350735135 
251 1 11.845715002769497 13.084994033663166 11.215300725980445 
252 1 11.843712639908752 11.211834918468405 13.085837553869162 
253 1 10.159550271008138 13.087997688103279 13.091734645049396 
254 1 10.148820519844907 11.215834671112136 11.216374185840953 
