ITEM: TIMESTEP
0
ITEM: NUMBER OF ATOMS
2001
ITEM: BOX BOUNDS pp pp pp
0.0000000000000000e+00 3.5200000000000003e+01
0.0000000000000000e+00 3.5200000000000003e+01
0.0000000000000000e+00 3.5200000000000003e+01
ITEM: ATOMS id type xu yu zu
1 1 16.34 16.34 17.8746
2 1 2.25975 0.499826 16.315
3 2 5.77972 0.499818 16.3149
4 1 9.29981 0.499886 16.3149
5 2 12.8199 0.499941 16.3149
6 1 16.34 0.499959 16.3149
7 1 19.8601 0.499941 16.3149
8 1 23.3802 0.499886 16.3149
9 1 26.9003 0.499818 16.3149
10 1 30.4202 0.499826 16.315
11 2 33.94 0.499873 16.315
12 1 0.499826 2.25975 16.315
13 1 4.01957 2.2596 16.3149
14 1 7.53959 2.25963 16.3149
15 1 11.0598 2.25979 16.3149
16 1 14.5799 2.25988 16.3149
17 1 18.1001 2.25988 16.3149
18 1 21.6202 2.25979 16.3149
19 1 25.1404 2.25963 16.3149
20 1 28.6604 2.2596 16.3149
21 1 32.1802 2.25975 16.315
22 1 2.2596 4.01957 16.3149
23 1 5.77925 4.01927 16.3149
24 1 9.29936 4.0194 16.3149
25 1 12.8197 4.01967 16.3149
26 2 16.34 4.01977 16.315
27 1 19.8603 4.01967 16.3149
28 1 23.3806 4.0194 16.3149
29 2 26.9007 4.01927 16.3149
30 1 30.4204 4.01957 16.3149
31 1 33.94 4.01976 16.315
32 1 0.499818 5.77972 16.3149
33 2 4.01927 5.77925 16.3149
34 1 7.53873 5.77875 16.3148
35 1 11.0591 5.77907 16.3149
36 1 14.5797 5.77948 16.315
37 2 18.1003 5.77948 16.315
38 1 21.6209 5.77907 16.3149
39 1 25.1413 5.77875 16.3148
40 2 28.6607 5.77925 16.3149
41 1 32.1802 5.77972 16.3149
42 1 2.25963 7.53959 16.3149
43 1 5.77875 7.53873 16.3148
44 1 9.29786 7.53788 16.3149
45 2 12.8187 7.53858 16.3151
46 1 16.34 7.53912 16.3152
47 1 19.8613 7.53858 16.3151
48 1 23.3821 7.53788 16.3149
49 1 26.9013 7.53873 16.3148
50 1 30.4204 7.53959 16.3149
51 1 33.94 7.53981 16.3149
52 1 0.499886 9.29981 16.3149
53 2 4.0194 9.29936 16.3149
54 2 7.53788 9.29786 16.3149
55 1 11.0564 9.29641 16.315
56 1 14.5786 9.29783 16.3156
57 1 18.1014 9.29783 16.3156
58 1 21.6236 9.29641 16.315
59 1 25.1421 9.29786 16.3149
60 1 28.6606 9.29936 16.3149
61 1 32.1801 9.29981 16.3149
62 1 2.25979 11.0598 16.3149
63 2 5.77907 11.0591 16.3149
64 2 9.29641 11.0564 16.315
65 1 12.814 11.0538 16.3159
66 1 16.34 11.056 16.3165
67 2 19.866 11.0538 16.3159
68 1 23.3836 11.0564 16.315
69 1 26.9009 11.0591 16.3149
70 1 30.4202 11.0598 16.3149
71 2 33.94 11.0599 16.3149
72 2 0.499941 12.8199 16.3149
73 2 4.01967 12.8197 16.3149
74 1 7.53858 12.8187 16.3151
75 1 11.0538 12.814 16.3159
76 1 14.5702 12.809 16.321
77 1 18.1098 12.809 16.321
78 2 21.6262 12.814 16.3159
79 1 25.1414 12.8187 16.3151
80 1 28.6603 12.8197 16.3149
81 1 32.1801 12.8199 16.3149
82 1 2.25988 14.5799 16.3149
83 1 5.77948 14.5797 16.315
84 1 9.29783 14.5786 16.3156
85 2 12.809 14.5702 16.321
86 1 16.34 14.5369 16.321
87 1 19.871 14.5702 16.321
88 1 23.3822 14.5786 16.3156
89 1 26.9005 14.5797 16.315
90 1 30.4201 14.5799 16.3149
91 1 33.94 14.58 16.3149
92 1 0.499959 16.34 16.3149
93 1 4.01977 16.34 16.315
94 1 7.53912 16.34 16.3152
95 2 11.056 16.34 16.3165
96 1 14.5369 16.34 16.321
97 1 18.1431 16.34 16.321
98 1 21.624 16.34 16.3165
99 1 25.1409 16.34 16.3152
100 2 28.6602 16.34 16.315
101 1 32.18 16.34 16.3149
102 1 2.25988 18.1001 16.3149
103 1 5.77948 18.1003 16.315
104 1 9.29783 18.1014 16.3156
105 1 12.809 18.1098 16.321
106 1 16.34 18.1431 16.321
107 2 19.871 18.1098 16.321
108 1 23.3822 18.1014 16.3156
109 1 26.9005 18.1003 16.315
110 1 30.4201 18.1001 16.3149
111 1 33.94 18.1 16.3149
112 1 0.499941 19.8601 16.3149
113 2 4.01967 19.8603 16.3149
114 1 7.53858 19.8613 16.3151
115 1 11.0538 19.866 16.3159
116 1 14.5702 19.871 16.321
117 2 18.1098 19.871 16.321
118 2 21.6262 19.866 16.3159
119 1 25.1414 19.8613 16.3151
120 1 28.6603 19.8603 16.3149
121 1 32.1801 19.8601 16.3149
122 2 2.25979 21.6202 16.3149
123 1 5.77907 21.6209 16.3149
124 1 9.29641 21.6236 16.315
125 1 12.814 21.6262 16.3159
126 1 16.34 21.624 16.3165
127 1 19.866 21.6262 16.3159
128 1 23.3836 21.6236 16.315
129 1 26.9009 21.6209 16.3149
130 1 30.4202 21.6202 16.3149
131 1 33.94 21.6201 16.3149
132 1 0.499886 23.3802 16.3149
133 1 4.0194 23.3806 16.3149
134 1 7.53788 23.3821 16.3149
135 1 11.0564 23.3836 16.315
136 1 14.5786 23.3822 16.3156
137 1 18.1014 23.3822 16.3156
138 1 21.6236 23.3836 16.315
139 1 25.1421 23.3821 16.3149
140 1 28.6606 23.3806 16.3149
141 1 32.1801 23.3802 16.3149
142 1 2.25963 25.1404 16.3149
143 2 5.77875 25.1413 16.3148
144 1 9.29786 25.1421 16.3149
145 2 12.8187 25.1414 16.3151
146 2 16.34 25.1409 16.3152
147 1 19.8613 25.1414 16.3151
148 1 23.3821 25.1421 16.3149
149 1 26.9013 25.1413 16.3148
150 1 30.4204 25.1404 16.3149
151 1 33.94 25.1402 16.3149
152 2 0.499818 26.9003 16.3149
153 1 4.01927 26.9007 16.3149
154 2 7.53873 26.9013 16.3148
155 1 11.0591 26.9009 16.3149
156 1 14.5797 26.9005 16.315
157 1 18.1003 26.9005 16.315
158 1 21.6209 26.9009 16.3149
159 1 25.1413 26.9013 16.3148
160 1 28.6607 26.9007 16.3149
161 1 32.1802 26.9003 16.3149
162 1 2.2596 28.6604 16.3149
163 2 5.77925 28.6607 16.3149
164 1 9.29936 28.6606 16.3149
165 2 12.8197 28.6603 16.3149
166 1 16.34 28.6602 16.315
167 2 19.8603 28.6603 16.3149
168 2 23.3806 28.6606 16.3149
169 1 26.9007 28.6607 16.3149
170 1 30.4204 28.6604 16.3149
171 1 33.94 28.6602 16.315
172 1 0.499826 30.4202 16.315
173 2 4.01957 30.4204 16.3149
174 1 7.53959 30.4204 16.3149
175 1 11.0598 30.4202 16.3149
176 1 14.5799 30.4201 16.3149
177 2 18.1001 30.4201 16.3149
178 1 21.6202 30.4202 16.3149
179 1 25.1404 30.4204 16.3149
180 1 28.6604 30.4204 16.3149
181 1 32.1802 30.4202 16.315
182 1 2.25975 32.1802 16.315
183 1 5.77972 32.1802 16.3149
184 2 9.29981 32.1801 16.3149
185 1 12.8199 32.1801 16.3149
186 1 16.34 32.18 16.3149
187 2 19.8601 32.1801 16.3149
188 1 23.3802 32.1801 16.3149
189 1 26.9003 32.1802 16.3149
190 1 30.4202 32.1802 16.315
191 1 33.94 32.1801 16.315
192 1 0.499873 33.94 16.315
193 1 4.01976 33.94 16.315
194 1 7.53981 33.94 16.3149
195 1 11.0599 33.94 16.3149
196 1 14.58 33.94 16.3149
197 1 18.1 33.94 16.3149
198 1 21.6201 33.94 16.3149
199 1 25.1402 33.94 16.3149
200 1 28.6602 33.94 16.315
201 1 32.1801 33.94 16.315
202 1 0.499874 0.499874 14.5731
203 1 4.01973 0.499822 14.573
204 1 7.53977 0.499846 14.573
205 2 11.0599 0.499912 14.5731
206 1 14.58 0.49995 14.5731
207 1 18.1 0.49995 14.5731
208 1 21.6201 0.499912 14.5731
209 1 25.1402 0.499846 14.573
210 1 28.6603 0.499822 14.573
211 2 32.1801 0.499874 14.5731
212 1 2.25971 2.25971 14.573
213 1 5.77959 2.25961 14.573
214 2 9.2997 2.25971 14.573
215 2 12.8199 2.25984 14.5731
216 1 16.34 2.25989 14.5732
217 1 19.8601 2.25984 14.5731
218 1 23.3803 2.25971 14.573
219 1 26.9004 2.25961 14.573
220 1 30.4203 2.25971 14.573
221 2 33.94 2.2598 14.5731
222 1 0.499822 4.01973 14.573
223 1 4.01948 4.01948 14.5729
224 1 7.53936 4.01933 14.5729
225 2 11.0596 4.01955 14.573
226 1 14.5799 4.01974 14.5731
227 1 18.1001 4.01974 14.5731
228 1 21.6204 4.01955 14.573
229 2 25.1406 4.01933 14.5729
230 1 28.6605 4.01948 14.5729
231 1 32.1802 4.01973 14.573
232 1 2.25961 5.77959 14.573
233 1 5.77914 5.77914 14.5728
234 1 9.29901 5.77893 14.5727
235 1 12.8195 5.77934 14.573
236 1 16.34 5.77956 14.5732
237 2 19.8605 5.77934 14.573
238 1 23.381 5.77893 14.5727
239 1 26.9009 5.77914 14.5728
240 1 30.4204 5.77959 14.573
241 1 33.94 5.77978 14.573
242 2 0.499846 7.53977 14.573
243 1 4.01933 7.53936 14.5729
244 1 7.53862 7.53862 14.5726
245 1 11.0585 7.53831 14.5727
246 1 14.5795 7.53905 14.5732
247 1 18.1005 7.53905 14.5732
248 1 21.6215 7.53831 14.5727
249 1 25.1414 7.53862 14.5726
250 1 28.6607 7.53936 14.5729
251 1 32.1802 7.53977 14.573
252 1 2.25971 9.2997 14.573
253 1 5.77893 9.29901 14.5727
254 1 9.29788 9.29788 14.5724
255 1 12.8179 9.29734 14.5729
256 1 16.34 9.29852 14.5736
257 1 19.8621 9.29734 14.5729
258 1 23.3821 9.29788 14.5724
259 2 26.9011 9.29901 14.5727
260 1 30.4203 9.2997 14.573
261 1 33.94 9.29986 14.5731
262 1 0.499912 11.0599 14.5731
263 1 4.01955 11.0596 14.573
264 2 7.53831 11.0585 14.5727
265 1 11.0569 11.0569 14.5725
266 1 14.5771 11.0558 14.5739
267 1 18.1029 11.0558 14.5739
268 1 21.6231 11.0569 14.5725
269 1 25.1417 11.0585 14.5727
270 1 28.6605 11.0596 14.573
271 1 32.1801 11.0599 14.5731
272 2 2.25984 12.8199 14.5731
273 1 5.77934 12.8195 14.573
274 1 9.29734 12.8179 14.5729
275 1 12.8159 12.8159 14.5742
276 1 16.34 12.8071 14.5704
277 1 19.8641 12.8159 14.5742
278 1 23.3827 12.8179 14.5729
279 1 26.9007 12.8195 14.573
280 2 30.4202 12.8199 14.5731
281 1 33.94 12.8199 14.5731
282 2 0.49995 14.58 14.5731
283 1 4.01974 14.5799 14.5731
284 1 7.53905 14.5795 14.5732
285 1 11.0558 14.5771 14.5739
286 1 14.5761 14.5761 14.5822
287 1 18.1039 14.5761 14.5822
288 1 21.6242 14.5771 14.5739
289 1 25.141 14.5795 14.5732
290 1 28.6603 14.5799 14.5731
291 1 32.1801 14.58 14.5731
292 1 2.25989 16.34 14.5732
293 2 5.77956 16.34 14.5732
294 2 9.29852 16.34 14.5736
295 1 12.8071 16.34 14.5704
296 1 16.34 16.34 14.6211
297 1 19.8729 16.34 14.5704
298 1 23.3815 16.34 14.5736
299 1 26.9004 16.34 14.5732
300 1 30.4201 16.34 14.5732
301 1 33.94 16.34 14.5732
302 1 0.49995 18.1 14.5731
303 1 4.01974 18.1001 14.5731
304 1 7.53905 18.1005 14.5732
305 1 11.0558 18.1029 14.5739
306 1 14.5761 18.1039 14.5822
307 1 18.1039 18.1039 14.5822
308 1 21.6242 18.1029 14.5739
309 1 25.141 18.1005 14.5732
310 1 28.6603 18.1001 14.5731
311 1 32.1801 18.1 14.5731
312 1 2.25984 19.8601 14.5731
313 1 5.77934 19.8605 14.573
314 1 9.29734 19.8621 14.5729
315 2 12.8159 19.8641 14.5742
316 1 16.34 19.8729 14.5704
317 1 19.8641 19.8641 14.5742
318 1 23.3827 19.8621 14.5729
319 1 26.9007 19.8605 14.573
320 1 30.4202 19.8601 14.5731
321 1 33.94 19.8601 14.5731
322 1 0.499912 21.6201 14.5731
323 2 4.01955 21.6204 14.573
324 1 7.53831 21.6215 14.5727
325 1 11.0569 21.6231 14.5725
326 1 14.5771 21.6242 14.5739
327 1 18.1029 21.6242 14.5739
328 1 21.6231 21.6231 14.5725
329 1 25.1417 21.6215 14.5727
330 1 28.6605 21.6204 14.573
331 1 32.1801 21.6201 14.5731
332 2 2.25971 23.3803 14.573
333 1 5.77893 23.381 14.5727
334 1 9.29788 23.3821 14.5724
335 1 12.8179 23.3827 14.5729
336 1 16.34 23.3815 14.5736
337 1 19.8621 23.3827 14.5729
338 1 23.3821 23.3821 14.5724
339 2 26.9011 23.381 14.5727
340 1 30.4203 23.3803 14.573
341 1 33.94 23.3801 14.5731
342 1 0.499846 25.1402 14.573
343 1 4.01933 25.1406 14.5729
344 1 7.53862 25.1414 14.5726
345 2 11.0585 25.1417 14.5727
346 2 14.5795 25.141 14.5732
347 2 18.1005 25.141 14.5732
348 2 21.6215 25.1417 14.5727
349 1 25.1414 25.1414 14.5726
350 1 28.6607 25.1406 14.5729
351 1 32.1802 25.1402 14.573
352 1 2.25961 26.9004 14.573
353 1 5.77914 26.9009 14.5728
354 1 9.29901 26.9011 14.5727
355 1 12.8195 26.9007 14.573
356 1 16.34 26.9004 14.5732
357 1 19.8605 26.9007 14.573
358 2 23.381 26.9011 14.5727
359 1 26.9009 26.9009 14.5728
360 2 30.4204 26.9004 14.573
361 1 33.94 26.9002 14.573
362 1 0.499822 28.6603 14.573
363 1 4.01948 28.6605 14.5729
364 1 7.53936 28.6607 14.5729
365 1 11.0596 28.6605 14.573
366 1 14.5799 28.6603 14.5731
367 1 18.1001 28.6603 14.5731
368 1 21.6204 28.6605 14.573
369 1 25.1406 28.6607 14.5729
370 1 28.6605 28.6605 14.5729
371 1 32.1802 28.6603 14.573
372 1 2.25971 30.4203 14.573
373 1 5.77959 30.4204 14.573
374 1 9.2997 30.4203 14.573
375 1 12.8199 30.4202 14.5731
376 1 16.34 30.4201 14.5732
377 1 19.8601 30.4202 14.5731
378 2 23.3803 30.4203 14.573
379 1 26.9004 30.4204 14.573
380 2 30.4203 30.4203 14.573
381 2 33.94 30.4202 14.5731
382 1 0.499874 32.1801 14.5731
383 1 4.01973 32.1802 14.573
384 1 7.53977 32.1802 14.573
385 2 11.0599 32.1801 14.5731
386 1 14.58 32.1801 14.5731
387 1 18.1 32.1801 14.5731
388 1 21.6201 32.1801 14.5731
389 2 25.1402 32.1802 14.573
390 1 28.6603 32.1802 14.573
391 1 32.1801 32.1801 14.5731
392 1 2.2598 33.94 14.5731
393 1 5.77978 33.94 14.573
394 1 9.29986 33.94 14.5731
395 1 12.8199 33.94 14.5731
396 1 16.34 33.94 14.5732
397 1 19.8601 33.94 14.5731
398 1 23.3801 33.94 14.5731
399 1 26.9002 33.94 14.573
400 1 30.4202 33.94 14.5731
401 1 33.94 33.94 14.5731
402 1 2.25981 0.499871 12.8218
403 1 5.77978 0.499836 12.8218
404 2 9.29987 0.499878 12.8218
405 1 12.82 0.499932 12.8219
406 1 16.34 0.49995 12.822
407 2 19.86 0.499932 12.8219
408 2 23.3801 0.499878 12.8218
409 1 26.9002 0.499836 12.8218
410 1 30.4202 0.499871 12.8218
411 1 33.94 0.499905 12.8218
412 1 0.499871 2.25981 12.8218
413 1 4.01969 2.2597 12.8217
414 1 7.5397 2.25966 12.8217
415 1 11.0598 2.25978 12.8218
416 2 14.58 2.25987 12.8219
417 1 18.1 2.25987 12.8219
418 1 21.6202 2.25978 12.8218
419 1 25.1403 2.25966 12.8217
420 1 28.6603 2.2597 12.8217
421 1 32.1801 2.25981 12.8218
422 1 2.2597 4.01969 12.8217
423 1 5.77952 4.01949 12.8216
424 1 9.29958 4.01946 12.8216
425 2 12.8198 4.01968 12.8218
426 1 16.34 4.01977 12.822
427 1 19.8602 4.01968 12.8218
428 2 23.3804 4.01946 12.8216
429 1 26.9005 4.01949 12.8216
430 2 30.4203 4.01969 12.8217
431 1 33.94 4.0198 12.8218
432 1 0.499836 5.77978 12.8218
433 1 4.01949 5.77952 12.8216
434 1 7.53928 5.77921 12.8214
435 1 11.0594 5.7792 12.8215
436 1 14.5799 5.77954 12.8219
437 1 18.1001 5.77954 12.8219
438 1 21.6206 5.7792 12.8215
439 2 25.1407 5.77921 12.8214
440 1 28.6605 5.77952 12.8216
441 1 32.1802 5.77978 12.8218
442 2 2.25966 7.5397 12.8217
443 1 5.77921 7.53928 12.8214
444 1 9.29901 7.53887 12.8212
445 1 12.8193 7.53884 12.8216
446 2 16.34 7.5393 12.8221
447 1 19.8607 7.53884 12.8216
448 1 23.381 7.53887 12.8212
449 1 26.9008 7.53928 12.8214
450 2 30.4203 7.5397 12.8217
451 2 33.94 7.53985 12.8218
452 2 0.499878 9.29987 12.8218
453 1 4.01946 9.29958 12.8216
454 1 7.53887 9.29901 12.8212
455 1 11.0588 9.29852 12.8213
456 1 14.5792 9.29833 12.822
457 1 18.1008 9.29833 12.822
458 1 21.6212 9.29852 12.8213
459 2 25.1411 9.29901 12.8212
460 2 28.6605 9.29958 12.8216
461 2 32.1801 9.29987 12.8218
462 1 2.25978 11.0598 12.8218
463 1 5.7792 11.0594 12.8215
464 2 9.29852 11.0588 12.8213
465 1 12.8187 11.0584 12.8221
466 1 16.34 11.0563 12.8214
467 1 19.8613 11.0584 12.8221
468 1 23.3815 11.0588 12.8213
469 1 26.9008 11.0594 12.8215
470 1 30.4202 11.0598 12.8218
471 1 33.94 11.0599 12.8219
472 2 0.499932 12.82 12.8219
473 2 4.01968 12.8198 12.8218
474 2 7.53884 12.8193 12.8216
475 1 11.0584 12.8187 12.8221
476 1 14.5791 12.8192 12.825
477 2 18.1009 12.8192 12.825
478 1 21.6216 12.8187 12.8221
479 2 25.1412 12.8193 12.8216
480 1 28.6603 12.8198 12.8218
481 1 32.1801 12.82 12.8219
482 1 2.25987 14.58 12.8219
483 1 5.77954 14.5799 12.8219
484 2 9.29833 14.5792 12.822
485 1 12.8192 14.5791 12.825
486 1 16.34 14.5837 12.835
487 1 19.8608 14.5791 12.825
488 1 23.3817 14.5792 12.822
489 1 26.9005 14.5799 12.8219
490 1 30.4201 14.58 12.8219
491 2 33.94 14.58 12.822
492 2 0.49995 16.34 12.822
493 1 4.01977 16.34 12.822
494 1 7.5393 16.34 12.8221
495 1 11.0563 16.34 12.8214
496 1 14.5837 16.34 12.835
497 1 18.0963 16.34 12.835
498 2 21.6237 16.34 12.8214
499 1 25.1407 16.34 12.8221
500 1 28.6602 16.34 12.822
501 2 32.18 16.34 12.822
502 1 2.25987 18.1 12.8219
503 1 5.77954 18.1001 12.8219
504 1 9.29833 18.1008 12.822
505 1 12.8192 18.1009 12.825
506 1 16.34 18.0963 12.835
507 1 19.8608 18.1009 12.825
508 1 23.3817 18.1008 12.822
509 1 26.9005 18.1001 12.8219
510 1 30.4201 18.1 12.8219
511 1 33.94 18.1 12.822
512 1 0.499932 19.86 12.8219
513 1 4.01968 19.8602 12.8218
514 1 7.53884 19.8607 12.8216
515 2 11.0584 19.8613 12.8221
516 1 14.5791 19.8608 12.825
517 1 18.1009 19.8608 12.825
518 1 21.6216 19.8613 12.8221
519 1 25.1412 19.8607 12.8216
520 2 28.6603 19.8602 12.8218
521 1 32.1801 19.86 12.8219
522 1 2.25978 21.6202 12.8218
523 1 5.7792 21.6206 12.8215
524 1 9.29852 21.6212 12.8213
525 1 12.8187 21.6216 12.8221
526 1 16.34 21.6237 12.8214
527 1 19.8613 21.6216 12.8221
528 2 23.3815 21.6212 12.8213
529 1 26.9008 21.6206 12.8215
530 1 30.4202 21.6202 12.8218
531 1 33.94 21.6201 12.8219
532 1 0.499878 23.3801 12.8218
533 2 4.01946 23.3804 12.8216
534 1 7.53887 23.381 12.8212
535 2 11.0588 23.3815 12.8213
536 1 14.5792 23.3817 12.822
537 1 18.1008 23.3817 12.822
538 2 21.6212 23.3815 12.8213
539 1 25.1411 23.381 12.8212
540 1 28.6605 23.3804 12.8216
541 2 32.1801 23.3801 12.8218
542 1 2.25966 25.1403 12.8217
543 2 5.77921 25.1407 12.8214
544 1 9.29901 25.1411 12.8212
545 1 12.8193 25.1412 12.8216
546 1 16.34 25.1407 12.8221
547 1 19.8607 25.1412 12.8216
548 2 23.381 25.1411 12.8212
549 2 26.9008 25.1407 12.8214
550 1 30.4203 25.1403 12.8217
551 1 33.94 25.1402 12.8218
552 1 0.499836 26.9002 12.8218
553 1 4.01949 26.9005 12.8216
554 2 7.53928 26.9008 12.8214
555 1 11.0594 26.9008 12.8215
556 1 14.5799 26.9005 12.8219
557 1 18.1001 26.9005 12.8219
558 1 21.6206 26.9008 12.8215
559 1 25.1407 26.9008 12.8214
560 1 28.6605 26.9005 12.8216
561 1 32.1802 26.9002 12.8218
562 1 2.2597 28.6603 12.8217
563 1 5.77952 28.6605 12.8216
564 1 9.29958 28.6605 12.8216
565 1 12.8198 28.6603 12.8218
566 1 16.34 28.6602 12.822
567 2 19.8602 28.6603 12.8218
568 1 23.3804 28.6605 12.8216
569 1 26.9005 28.6605 12.8216
570 2 30.4203 28.6603 12.8217
571 1 33.94 28.6602 12.8218
572 2 0.499871 30.4202 12.8218
573 1 4.01969 30.4203 12.8217
574 1 7.5397 30.4203 12.8217
575 1 11.0598 30.4202 12.8218
576 1 14.58 30.4201 12.8219
577 2 18.1 30.4201 12.8219
578 1 21.6202 30.4202 12.8218
579 1 25.1403 30.4203 12.8217
580 1 28.6603 30.4203 12.8217
581 1 32.1801 30.4202 12.8218
582 2 2.25981 32.1801 12.8218
583 1 5.77978 32.1802 12.8218
584 1 9.29987 32.1801 12.8218
585 1 12.82 32.1801 12.8219
586 1 16.34 32.18 12.822
587 1 19.86 32.1801 12.8219
588 1 23.3801 32.1801 12.8218
589 1 26.9002 32.1802 12.8218
590 1 30.4202 32.1801 12.8218
591 1 33.94 32.1801 12.8218
592 2 0.499905 33.94 12.8218
593 1 4.0198 33.94 12.8218
594 1 7.53985 33.94 12.8218
595 1 11.0599 33.94 12.8219
596 1 14.58 33.94 12.822
597 1 18.1 33.94 12.822
598 2 21.6201 33.94 12.8219
599 1 25.1402 33.94 12.8218
600 1 28.6602 33.94 12.8218
601 1 32.1801 33.94 12.8218
602 1 0.499919 0.499919 11.0617
603 1 4.01983 0.499879 11.0617
604 2 7.53987 0.499867 11.0617
605 1 11.06 0.49991 11.0618
606 1 14.58 0.499943 11.0619
607 1 18.1 0.499943 11.0619
608 2 21.62 0.49991 11.0618
609 1 25.1401 0.499867 11.0617
610 2 28.6602 0.499879 11.0617
611 1 32.1801 0.499919 11.0617
612 1 2.25982 2.25982 11.0617
613 2 5.77977 2.25974 11.0617
614 1 9.29986 2.25974 11.0617
615 2 12.82 2.25984 11.0618
616 2 16.34 2.25988 11.0619
617 1 19.86 2.25984 11.0618
618 1 23.3801 2.25974 11.0617
619 1 26.9002 2.25974 11.0617
620 1 30.4202 2.25982 11.0617
621 1 33.94 2.25987 11.0617
622 1 0.499879 4.01983 11.0617
623 1 4.0197 4.0197 11.0616
624 1 7.53969 4.01959 11.0615
625 1 11.0598 4.01962 11.0616
626 1 14.58 4.01978 11.0618
627 1 18.1 4.01978 11.0618
628 1 21.6202 4.01962 11.0616
629 1 25.1403 4.01959 11.0615
630 1 28.6603 4.0197 11.0616
631 1 32.1801 4.01983 11.0617
632 1 2.25974 5.77977 11.0617
633 2 5.77956 5.77956 11.0615
634 1 9.29962 5.77944 11.0614
635 1 12.8198 5.77949 11.0616
636 1 16.34 5.77967 11.0619
637 1 19.8602 5.77949 11.0616
638 2 23.3804 5.77944 11.0614
639 1 26.9004 5.77956 11.0615
640 1 30.4203 5.77977 11.0617
641 1 33.94 5.77986 11.0617
642 2 0.499867 7.53987 11.0617
643 2 4.01959 7.53969 11.0615
644 1 7.53944 7.53944 11.0614
645 1 11.0596 7.53934 11.0615
646 1 14.5798 7.53935 11.0618
647 1 18.1002 7.53935 11.0618
648 1 21.6204 7.53934 11.0615
649 1 25.1406 7.53944 11.0614
650 1 28.6604 7.53969 11.0615
651 1 32.1801 7.53987 11.0617
652 1 2.25974 9.29986 11.0617
653 1 5.77944 9.29962 11.0614
654 1 9.29941 9.29941 11.0614
655 1 12.8197 9.29943 11.0619
656 1 16.34 9.29893 11.0619
657 1 19.8603 9.29943 11.0619
658 1 23.3806 9.29941 11.0614
659 1 26.9006 9.29962 11.0614
660 1 30.4203 9.29986 11.0617
661 2 33.94 9.29994 11.0618
662 1 0.49991 11.06 11.0618
663 1 4.01962 11.0598 11.0616
664 1 7.53934 11.0596 11.0615
665 1 11.0596 11.0596 11.062
666 1 14.5799 11.06 11.0633
667 1 18.1001 11.06 11.0633
668 2 21.6204 11.0596 11.062
669 1 25.1407 11.0596 11.0615
670 1 28.6604 11.0598 11.0616
671 1 32.1801 11.06 11.0618
672 1 2.25984 12.82 11.0618
673 1 5.77949 12.8198 11.0616
674 1 9.29943 12.8197 11.0619
675 2 12.8202 12.8202 11.0638
676 1 16.34 12.8219 11.0673
677 2 19.8598 12.8202 11.0638
678 1 23.3806 12.8197 11.0619
679 1 26.9005 12.8198 11.0616
680 1 30.4202 12.82 11.0618
681 1 33.94 12.82 11.0619
682 1 0.499943 14.58 11.0619
683 1 4.01978 14.58 11.0618
684 1 7.53935 14.5798 11.0618
685 1 11.06 14.5799 11.0633
686 1 14.5814 14.5814 11.0679
687 1 18.0986 14.5814 11.0679
688 1 21.62 14.5799 11.0633
689 1 25.1406 14.5798 11.0618
690 2 28.6602 14.58 11.0618
691 1 32.1801 14.58 11.0619
692 1 2.25988 16.34 11.0619
693 2 5.77967 16.34 11.0619
694 1 9.29893 16.34 11.0619
695 1 12.8219 16.34 11.0673
696 1 16.34 16.34 11.0681
697 1 19.8581 16.34 11.0673
698 1 23.3811 16.34 11.0619
699 2 26.9003 16.34 11.0619
700 2 30.4201 16.34 11.0619
701 1 33.94 16.34 11.0619
702 2 0.499943 18.1 11.0619
703 2 4.01978 18.1 11.0618
704 1 7.53935 18.1002 11.0618
705 1 11.06 18.1001 11.0633
706 1 14.5814 18.0986 11.0679
707 1 18.0986 18.0986 11.0679
708 1 21.62 18.1001 11.0633
709 2 25.1406 18.1002 11.0618
710 1 28.6602 18.1 11.0618
711 2 32.1801 18.1 11.0619
712 1 2.25984 19.86 11.0618
713 1 5.77949 19.8602 11.0616
714 1 9.29943 19.8603 11.0619
715 1 12.8202 19.8598 11.0638
716 1 16.34 19.8581 11.0673
717 1 19.8598 19.8598 11.0638
718 1 23.3806 19.8603 11.0619
719 1 26.9005 19.8602 11.0616
720 2 30.4202 19.86 11.0618
721 1 33.94 19.86 11.0619
722 2 0.49991 21.62 11.0618
723 1 4.01962 21.6202 11.0616
724 1 7.53934 21.6204 11.0615
725 2 11.0596 21.6204 11.062
726 1 14.5799 21.62 11.0633
727 1 18.1001 21.62 11.0633
728 1 21.6204 21.6204 11.062
729 2 25.1407 21.6204 11.0615
730 1 28.6604 21.6202 11.0616
731 1 32.1801 21.62 11.0618
732 1 2.25974 23.3801 11.0617
733 1 5.77944 23.3804 11.0614
734 1 9.29941 23.3806 11.0614
735 2 12.8197 23.3806 11.0619
736 1 16.34 23.3811 11.0619
737 1 19.8603 23.3806 11.0619
738 1 23.3806 23.3806 11.0614
739 1 26.9006 23.3804 11.0614
740 1 30.4203 23.3801 11.0617
741 1 33.94 23.3801 11.0618
742 1 0.499867 25.1401 11.0617
743 1 4.01959 25.1403 11.0615
744 2 7.53944 25.1406 11.0614
745 1 11.0596 25.1407 11.0615
746 1 14.5798 25.1406 11.0618
747 1 18.1002 25.1406 11.0618
748 1 21.6204 25.1407 11.0615
749 1 25.1406 25.1406 11.0614
750 1 28.6604 25.1403 11.0615
751 1 32.1801 25.1401 11.0617
752 1 2.25974 26.9002 11.0617
753 1 5.77956 26.9004 11.0615
754 1 9.29962 26.9006 11.0614
755 1 12.8198 26.9005 11.0616
756 2 16.34 26.9003 11.0619
757 1 19.8602 26.9005 11.0616
758 1 23.3804 26.9006 11.0614
759 1 26.9004 26.9004 11.0615
760 2 30.4203 26.9002 11.0617
761 1 33.94 26.9001 11.0617
762 1 0.499879 28.6602 11.0617
763 1 4.0197 28.6603 11.0616
764 1 7.53969 28.6604 11.0615
765 2 11.0598 28.6604 11.0616
766 1 14.58 28.6602 11.0618
767 1 18.1 28.6602 11.0618
768 1 21.6202 28.6604 11.0616
769 2 25.1403 28.6604 11.0615
770 1 28.6603 28.6603 11.0616
771 1 32.1801 28.6602 11.0617
772 1 2.25982 30.4202 11.0617
773 2 5.77977 30.4203 11.0617
774 2 9.29986 30.4203 11.0617
775 1 12.82 30.4202 11.0618
776 1 16.34 30.4201 11.0619
777 2 19.86 30.4202 11.0618
778 1 23.3801 30.4203 11.0617
779 1 26.9002 30.4203 11.0617
780 1 30.4202 30.4202 11.0617
781 2 33.94 30.4201 11.0617
782 2 0.499919 32.1801 11.0617
783 1 4.01983 32.1801 11.0617
784 1 7.53987 32.1801 11.0617
785 1 11.06 32.1801 11.0618
786 1 14.58 32.1801 11.0619
787 1 18.1 32.1801 11.0619
788 2 21.62 32.1801 11.0618
789 1 25.1401 32.1801 11.0617
790 1 28.6602 32.1801 11.0617
791 1 32.1801 32.1801 11.0617
792 1 2.25987 33.94 11.0617
793 1 5.77986 33.94 11.0617
794 1 9.29994 33.94 11.0618
795 1 12.82 33.94 11.0619
796 2 16.34 33.94 11.0619
797 2 19.86 33.94 11.0619
798 2 23.3801 33.94 11.0618
799 1 26.9001 33.94 11.0617
800 1 30.4201 33.94 11.0617
801 1 33.94 33.94 11.0617
802 1 2.2599 0.49993 9.30127
803 1 5.7799 0.499903 9.30127
804 2 9.29997 0.499903 9.30131
805 1 12.82 0.499936 9.30139
806 1 16.34 0.49995 9.30143
807 2 19.86 0.499936 9.30139
808 1 23.38 0.499903 9.30131
809 1 26.9001 0.499903 9.30127
810 1 30.4201 0.49993 9.30127
811 1 33.94 0.499948 9.30128
812 1 0.49993 2.2599 9.30127
813 1 4.01985 2.25985 9.30124
814 2 7.53989 2.25981 9.30123
815 2 11.06 2.25983 9.30129
816 1 14.58 2.25989 9.30139
817 2 18.1 2.25989 9.30139
818 2 21.62 2.25983 9.30129
819 1 25.1401 2.25981 9.30123
820 2 28.6601 2.25985 9.30124
821 1 32.1801 2.2599 9.30127
822 2 2.25985 4.01985 9.30124
823 2 5.7798 4.01977 9.30117
824 2 9.2999 4.01974 9.30118
825 1 12.82 4.01978 9.30128
826 2 16.34 4.01985 9.30137
827 1 19.86 4.01978 9.30128
828 1 23.3801 4.01974 9.30118
829 1 26.9002 4.01977 9.30117
830 1 30.4202 4.01985 9.30124
831 1 33.94 4.0199 9.30128
832 2 0.499903 5.7799 9.30127
833 2 4.01977 5.7798 9.30117
834 1 7.53979 5.77972 9.3011
835 2 11.0599 5.77973 9.30118
836 1 14.58 5.77976 9.30131
837 1 18.1 5.77976 9.30131
838 1 21.6201 5.77973 9.30118
839 1 25.1402 5.77972 9.3011
840 1 28.6602 5.7798 9.30117
841 1 32.1801 5.7799 9.30127
842 1 2.25981 7.53989 9.30123
843 1 5.77972 7.53979 9.3011
844 2 9.29985 7.53976 9.30114
845 1 12.82 7.53985 9.30138
846 1 16.34 7.53975 9.3014
847 2 19.86 7.53985 9.30138
848 1 23.3802 7.53976 9.30114
849 2 26.9003 7.53979 9.3011
850 1 30.4202 7.53989 9.30123
851 2 33.94 7.53994 9.3013
852 1 0.499903 9.29997 9.30131
853 1 4.01974 9.2999 9.30118
854 1 7.53976 9.29985 9.30114
855 1 11.06 9.29997 9.30148
856 1 14.5801 9.30022 9.302
857 1 18.0999 9.30022 9.302
858 1 21.62 9.29997 9.30148
859 2 25.1402 9.29985 9.30114
860 2 28.6603 9.2999 9.30118
861 1 32.1801 9.29997 9.30131
862 2 2.25983 11.06 9.30129
863 1 5.77973 11.0599 9.30118
864 1 9.29997 11.06 9.30148
865 1 12.8203 11.0604 9.30242
866 1 16.34 11.0612 9.30358
867 1 19.8597 11.0604 9.30242
868 1 23.38 11.06 9.30148
869 1 26.9003 11.0599 9.30118
870 1 30.4202 11.06 9.30129
871 1 33.94 11.06 9.30137
872 1 0.499936 12.82 9.30139
873 1 4.01978 12.82 9.30128
874 1 7.53985 12.82 9.30138
875 2 11.0604 12.8203 9.30242
876 2 14.5807 12.8212 9.30429
877 1 18.0993 12.8212 9.30429
878 1 21.6196 12.8203 9.30242
879 1 25.1402 12.82 9.30138
880 2 28.6602 12.82 9.30128
881 1 32.1801 12.82 9.30139
882 1 2.25989 14.58 9.30139
883 2 5.77976 14.58 9.30131
884 1 9.30022 14.5801 9.302
885 1 12.8212 14.5807 9.30429
886 1 16.34 14.5807 9.3047
887 1 19.8588 14.5807 9.30429
888 1 23.3798 14.5801 9.302
889 1 26.9002 14.58 9.30131
890 1 30.4201 14.58 9.30139
891 1 33.94 14.58 9.30143
892 1 0.49995 16.34 9.30143
893 1 4.01985 16.34 9.30137
894 1 7.53975 16.34 9.3014
895 2 11.0612 16.34 9.30358
896 1 14.5807 16.34 9.3047
897 1 18.0993 16.34 9.3047
898 1 21.6188 16.34 9.30358
899 1 25.1403 16.34 9.3014
900 1 28.6601 16.34 9.30137
901 1 32.1801 16.34 9.30143
902 1 2.25989 18.1 9.30139
903 2 5.77976 18.1 9.30131
904 1 9.30022 18.0999 9.302
905 1 12.8212 18.0993 9.30429
906 1 16.34 18.0993 9.3047
907 1 19.8588 18.0993 9.30429
908 1 23.3798 18.0999 9.302
909 1 26.9002 18.1 9.30131
910 1 30.4201 18.1 9.30139
911 1 33.94 18.1 9.30143
912 1 0.499936 19.86 9.30139
913 1 4.01978 19.86 9.30128
914 1 7.53985 19.86 9.30138
915 2 11.0604 19.8597 9.30242
916 1 14.5807 19.8588 9.30429
917 1 18.0993 19.8588 9.30429
918 1 21.6196 19.8597 9.30242
919 1 25.1402 19.86 9.30138
920 1 28.6602 19.86 9.30128
921 1 32.1801 19.86 9.30139
922 2 2.25983 21.62 9.30129
923 1 5.77973 21.6201 9.30118
924 1 9.29997 21.62 9.30148
925 2 12.8203 21.6196 9.30242
926 1 16.34 21.6188 9.30358
927 1 19.8597 21.6196 9.30242
928 1 23.38 21.62 9.30148
929 1 26.9003 21.6201 9.30118
930 1 30.4202 21.62 9.30129
931 1 33.94 21.62 9.30137
932 1 0.499903 23.38 9.30131
933 1 4.01974 23.3801 9.30118
934 1 7.53976 23.3802 9.30114
935 1 11.06 23.38 9.30148
936 1 14.5801 23.3798 9.302
937 1 18.0999 23.3798 9.302
938 1 21.62 23.38 9.30148
939 1 25.1402 23.3802 9.30114
940 1 28.6603 23.3801 9.30118
941 1 32.1801 23.38 9.30131
942 2 2.25981 25.1401 9.30123
943 2 5.77972 25.1402 9.3011
944 1 9.29985 25.1402 9.30114
945 1 12.82 25.1402 9.30138
946 1 16.34 25.1403 9.3014
947 1 19.86 25.1402 9.30138
948 1 23.3802 25.1402 9.30114
949 1 26.9003 25.1402 9.3011
950 1 30.4202 25.1401 9.30123
951 1 33.94 25.1401 9.3013
952 1 0.499903 26.9001 9.30127
953 1 4.01977 26.9002 9.30117
954 1 7.53979 26.9003 9.3011
955 1 11.0599 26.9003 9.30118
956 1 14.58 26.9002 9.30131
957 1 18.1 26.9002 9.30131
958 1 21.6201 26.9003 9.30118
959 2 25.1402 26.9003 9.3011
960 2 28.6602 26.9002 9.30117
961 1 32.1801 26.9001 9.30127
962 1 2.25985 28.6601 9.30124
963 1 5.7798 28.6602 9.30117
964 1 9.2999 28.6603 9.30118
965 1 12.82 28.6602 9.30128
966 1 16.34 28.6601 9.30137
967 1 19.86 28.6602 9.30128
968 1 23.3801 28.6603 9.30118
969 1 26.9002 28.6602 9.30117
970 1 30.4202 28.6601 9.30124
971 2 33.94 28.6601 9.30128
972 2 0.49993 30.4201 9.30127
973 1 4.01985 30.4202 9.30124
974 1 7.53989 30.4202 9.30123
975 2 11.06 30.4202 9.30129
976 1 14.58 30.4201 9.30139
977 1 18.1 30.4201 9.30139
978 1 21.62 30.4202 9.30129
979 1 25.1401 30.4202 9.30123
980 1 28.6601 30.4202 9.30124
981 2 32.1801 30.4201 9.30127
982 2 2.2599 32.1801 9.30127
983 2 5.7799 32.1801 9.30127
984 1 9.29997 32.1801 9.30131
985 2 12.82 32.1801 9.30139
986 2 16.34 32.1801 9.30143
987 1 19.86 32.1801 9.30139
988 1 23.38 32.1801 9.30131
989 2 26.9001 32.1801 9.30127
990 1 30.4201 32.1801 9.30127
991 1 33.94 32.1801 9.30128
992 1 0.499948 33.94 9.30128
993 1 4.0199 33.94 9.30128
994 1 7.53994 33.94 9.3013
995 1 11.06 33.94 9.30137
996 2 14.58 33.94 9.30143
997 1 18.1 33.94 9.30143
998 1 21.62 33.94 9.30137
999 1 25.1401 33.94 9.3013
1000 1 28.6601 33.94 9.30128
1001 1 32.1801 33.94 9.30128
1002 1 0.499965 0.499965 7.54082
1003 1 4.01993 0.499949 7.54081
1004 1 7.53997 0.499937 7.54083
1005 1 11.06 0.499941 7.54087
1006 1 14.58 0.499958 7.54091
1007 2 18.1 0.499958 7.54091
1008 2 21.62 0.499941 7.54087
1009 2 25.14 0.499937 7.54083
1010 1 28.6601 0.499949 7.54081
1011 1 32.18 0.499965 7.54082
1012 1 2.25993 2.25993 7.54081
1013 1 5.77993 2.2599 7.5408
1014 1 9.29999 2.25989 7.54082
1015 2 12.82 2.25991 7.54086
1016 1 16.34 2.25993 7.5409
1017 1 19.86 2.25991 7.54086
1018 1 23.38 2.25989 7.54082
1019 2 26.9001 2.2599 7.5408
1020 1 30.4201 2.25993 7.54081
1021 1 33.94 2.25995 7.54082
1022 1 0.499949 4.01993 7.54081
1023 1 4.0199 4.0199 7.54079
1024 1 7.53994 4.01987 7.54078
1025 1 11.06 4.01989 7.54082
1026 1 14.58 4.01991 7.54086